<?xml version="1.0"?>
<VTKFile type="UnstructuredGrid"  version="0.1"  >
<UnstructuredGrid>
<Piece  NumberOfPoints="133" NumberOfCells="232">
<Points>
<DataArray  type="Float64"  NumberOfComponents="3"  format="ascii">-1 -1 0  -1 1 0  1 1 0  1 -1 0  0.5 0 0  -0.5 0 0  0 0.5 0  0 -0.5 0  -1 0.7500000000006933 0  -1 0.5000000000013871 0  -1 0.2500000000020808 0  -1 2.752797989558076e-12 0  -1 -0.2499999999979192 0  -1 -0.4999999999986129 0  -1 -0.7499999999993063 0  -0.7500000000006933 -1 0  -0.5000000000013871 -1 0  -0.2500000000020808 -1 0  -2.752797989558076e-12 -1 0  0.2499999999979192 -1 0  0.4999999999986129 -1 0  0.7499999999993063 -1 0  1 -0.7500000000006933 0  1 -0.5000000000013871 0  1 -0.2500000000020808 0  1 -2.752797989558076e-12 0  1 0.2499999999979192 0  1 0.4999999999986129 0  1 0.7499999999993063 0  0.7500000000006933 1 0  0.5000000000013871 1 0  0.2500000000020808 1 0  2.752797989558076e-12 1 0  -0.2499999999979192 1 0  -0.4999999999986129 1 0  -0.7499999999993063 1 0  -0.1913417161820583 0.4619397662558449 0  -0.353553390592603 0.3535533905939446 0  -0.4619397662554816 0.1913417161829355 0  -0.4619397662558449 -0.1913417161820583 0  -0.3535533905939446 -0.353553390592603 0  -0.1913417161829355 -0.4619397662554816 0  0.1913417161820583 -0.4619397662558449 0  0.353553390592603 -0.3535533905939446 0  0.4619397662554816 -0.1913417161829355 0  0.4619397662558449 0.1913417161820583 0  0.3535533905939446 0.353553390592603 0  0.1913417161829355 0.4619397662554816 0  9.031255081095416e-19 0 0  0.25 0.04972809184477758 0  -0.25 -0.04972809184477758 0  -0.04972809184477758 0.25 0  0.04972809184477758 -0.25 0  -0.2580652513431247 0.1670906536415507 0  -0.1670906536415507 -0.2580652513431247 0  0.2580652513431247 -0.1670906536415507 0  0.1670906536415507 0.2580652513431247 0  0.3648193952146552 -0.05257909649503527 0  -0.3648193952146552 0.05257909649503527 0  0.05257909649503527 0.3648193952146552 0  -0.05257909649503525 -0.3648193952146552 0  -0.185865838236287 0.323576567105566 0  -0.323576567105566 -0.185865838236287 0  0.185865838236287 -0.323576567105566 0  0.3235765671055661 0.185865838236287 0  0.0581016748072713 0.1287064077182711 0  -0.05810167480727129 -0.1287064077182711 0  0.1287064077182711 -0.05810167480727129 0  -0.1287064077182711 0.05810167480727129 0  0.3800671457152133 0.0748713099536175 0  -0.3800671457152133 -0.0748713099536175 0  -0.0748713099536175 0.3800671457152133 0  0.07487130995361752 -0.3800671457152133 0  0.5932735244208422 -0.6321925514883833 0  -0.6321925514883833 -0.5932735244208422 0  -0.5932735244208422 0.6321925514883833 0  0.6321925514883833 0.5932735244208422 0  -0.725319001679303 -0.3651385095377629 0  0.3651385095377629 -0.725319001679303 0  0.725319001679303 0.3651385095377629 0  -0.3651385095377629 0.725319001679303 0  -0.720644059028225 0.3175168567015251 0  -0.3175168567015251 -0.720644059028225 0  0.720644059028225 -0.3175168567015251 0  0.3175168567015251 0.7206440590282248 0  0.7490350072388727 0.02818958517211992 0  -0.7490350072388727 -0.02818958517211992 0  -0.02818958517211992 0.7490350072388727 0  0.02818958517211992 -0.7490350072388727 0  0.6514576605548699 -0.1454892440582588 0  -0.6514576605548699 0.1454892440582588 0  0.1454892440582588 0.6514576605548698 0  -0.1454892440582588 -0.6514576605548699 0  -0.537852991540576 0.4449594527708651 0  0.537852991540576 -0.4449594527708651 0  0.4449594527708651 0.537852991540576 0  -0.4449594527708651 -0.537852991540576 0  -0.7850312546102544 -0.7785447500989242 0  0.7785447500989242 -0.7850312546102544 0  0.7850312546102544 0.7785447500989242 0  -0.7785447500989242 0.7850312546102544 0  -0.3736908410276792 0.5413101830843219 0  -0.5413101830843219 -0.3736908410276792 0  0.3736908410276794 -0.5413101830843219 0  0.5413101830843219 0.3736908410276792 0  -0.7875681041959772 0.5440703669318614 0  0.7875681041959772 -0.5440703669318614 0  0.5440703669318615 0.7875681041959772 0  -0.5440703669318614 -0.7875681041959772 0  -0.8285085615555881 -0.5973913568110898 0  0.5973913568110897 -0.8285085615555881 0  0.8285085615555881 0.5973913568110897 0  -0.5973913568110897 0.8285085615555881 0  -0.8461467069863171 0.1516674292990085 0  -0.1516674292990085 -0.8461467069863171 0  0.8461467069863171 -0.1516674292990085 0  0.1516674292990085 0.8461467069863171 0  -0.1974795378809304 0.6354360829991103 0  -0.6354360829991103 -0.1974795378809304 0  0.1974795378809305 -0.6354360829991103 0  0.6354360829991103 0.1974795378809304 0  -0.5726725558135342 0.2963671146458808 0  -0.2963671146458808 -0.5726725558135342 0  0.5726725558135342 -0.2963671146458808 0  0.2963671146458808 0.5726725558135342 0  -0.8350125397363195 -0.2265165753659623 0  0.2265165753659623 -0.8350125397363195 0  0.8350125397363195 0.2265165753659623 0  -0.2265165753659623 0.8350125397363195 0  -0.8795924667985884 0.3719876001899392 0  -0.3719876001899392 -0.8795924667985884 0  0.8795924667985884 -0.3719876001899392 0  0.3719876001899392 0.8795924667985884 0  </DataArray>
</Points>
<Cells>
<DataArray  type="UInt32"  Name="connectivity"  format="ascii">37 38 53  40 41 54  43 44 55  46 47 56  51 65 68  52 66 67  49 65 67  50 66 68  49 56 65  50 54 66  51 53 68  52 55 67  37 53 61  40 54 62  43 55 63  46 56 64  38 53 58  41 54 60  44 55 57  47 56 59  49 55 57  50 53 58  51 56 59  52 54 60  49 56 64  50 54 62  51 53 61  52 55 63  51 56 65  52 54 66  49 55 67  50 53 68  48 65 67  48 65 68  48 66 67  48 66 68  4 44 57  5 38 58  6 47 59  7 41 60  36 37 61  39 40 62  42 43 63  45 46 64  4 45 69  5 39 70  6 36 71  7 42 72  36 61 71  39 62 70  42 63 72  45 64 69  6 59 71  7 60 72  4 57 69  5 58 70  49 57 69  50 58 70  51 59 71  52 60 72  49 64 69  50 62 70  51 61 71  52 63 72  13 77 109  20 78 110  27 79 111  34 80 112  13 77 125  20 78 126  27 79 127  34 80 128  73 78 103  74 77 102  75 80 101  76 79 104  73 94 103  74 96 102  75 93 101  76 95 104  12 13 125  19 20 126  26 27 127  33 34 128  73 78 110  75 80 112  76 79 111  74 77 109  4 85 89  5 86 90  6 87 91  7 88 92  4 85 120  5 86 118  6 87 117  7 88 119  8 100 105  15 97 108  22 98 106  29 99 107  21 98 110  28 99 111  35 100 112  14 97 109  0 15 97  1 8 100  2 29 99  3 22 98  0 14 97  1 35 100  2 28 99  3 21 98  73 94 106  74 96 108  75 93 105  76 95 107  81 93 105  82 96 108  83 94 106  84 95 107  8 9 105  15 16 108  22 23 106  29 30 107  13 14 109  20 21 110  27 28 111  34 35 112  11 86 125  18 88 126  25 85 127  32 87 128  4 45 120  5 39 118  6 36 117  7 42 119  4 44 89  5 38 90  6 47 91  7 41 92  81 90 113  82 92 114  83 89 115  84 91 116  81 113 129  82 114 130  83 115 131  84 116 132  11 12 125  18 19 126  25 26 127  32 33 128  37 38 121  40 41 122  43 44 123  46 47 124  11 86 113  18 88 114  25 85 115  32 87 116  73 98 106  75 100 105  76 99 107  74 97 108  73 98 110  75 100 112  76 99 111  74 97 109  37 93 121  40 96 122  43 94 123  46 95 124  85 89 115  86 90 113  87 91 116  88 92 114  37 93 101  40 96 102  43 94 103  46 95 104  36 37 101  39 40 102  42 43 103  45 46 104  38 90 121  41 92 122  44 89 123  47 91 124  10 113 129  17 114 130  24 115 131  31 116 132  10 11 113  17 18 114  24 25 115  31 32 116  81 90 121  82 92 122  83 89 123  84 91 124  9 10 129  16 17 130  23 24 131  30 31 132  36 101 117  39 102 118  42 103 119  45 104 120  81 93 121  82 96 122  83 94 123  84 95 124  77 102 118  78 103 119  79 104 120  80 101 117  85 120 127  86 118 125  87 117 128  88 119 126  77 118 125  78 119 126  79 120 127  80 117 128  81 105 129  82 108 130  83 106 131  84 107 132  9 105 129  16 108 130  23 106 131  30 107 132  </DataArray>
<DataArray  type="UInt32"  Name="offsets"  format="ascii">3 6 9 12 15 18 21 24 27 30 33 36 39 42 45 48 51 54 57 60 63 66 69 72 75 78 81 84 87 90 93 96 99 102 105 108 111 114 117 120 123 126 129 132 135 138 141 144 147 150 153 156 159 162 165 168 171 174 177 180 183 186 189 192 195 198 201 204 207 210 213 216 219 222 225 228 231 234 237 240 243 246 249 252 255 258 261 264 267 270 273 276 279 282 285 288 291 294 297 300 303 306 309 312 315 318 321 324 327 330 333 336 339 342 345 348 351 354 357 360 363 366 369 372 375 378 381 384 387 390 393 396 399 402 405 408 411 414 417 420 423 426 429 432 435 438 441 444 447 450 453 456 459 462 465 468 471 474 477 480 483 486 489 492 495 498 501 504 507 510 513 516 519 522 525 528 531 534 537 540 543 546 549 552 555 558 561 564 567 570 573 576 579 582 585 588 591 594 597 600 603 606 609 612 615 618 621 624 627 630 633 636 639 642 645 648 651 654 657 660 663 666 669 672 675 678 681 684 687 690 693 696 </DataArray>
<DataArray  type="UInt8"  Name="types"  format="ascii">5 5 5 5 5 5 5 5 5 5 5 5 5 5 5 5 5 5 5 5 5 5 5 5 5 5 5 5 5 5 5 5 5 5 5 5 5 5 5 5 5 5 5 5 5 5 5 5 5 5 5 5 5 5 5 5 5 5 5 5 5 5 5 5 5 5 5 5 5 5 5 5 5 5 5 5 5 5 5 5 5 5 5 5 5 5 5 5 5 5 5 5 5 5 5 5 5 5 5 5 5 5 5 5 5 5 5 5 5 5 5 5 5 5 5 5 5 5 5 5 5 5 5 5 5 5 5 5 5 5 5 5 5 5 5 5 5 5 5 5 5 5 5 5 5 5 5 5 5 5 5 5 5 5 5 5 5 5 5 5 5 5 5 5 5 5 5 5 5 5 5 5 5 5 5 5 5 5 5 5 5 5 5 5 5 5 5 5 5 5 5 5 5 5 5 5 5 5 5 5 5 5 5 5 5 5 5 5 5 5 5 5 5 5 5 5 5 5 5 5 5 5 5 5 5 5 5 5 5 5 5 5 </DataArray>
</Cells>
<PointData  Scalars="f_11"> 
<DataArray  type="Float64"  Name="f_11"  format="ascii">-1.5184188463295778e+00  0.0000000000000000e+00  0.0000000000000000e+00  -1.5188255862877540e+00  -7.3574238908845380e-01  -7.3551650880811925e-01  -6.3554592010083055e-01  -8.3340055356253007e-01  -2.1455723737836926e-01  -4.1469333005225373e-01  -5.8776619492393722e-01  -7.3894102234862469e-01  -8.9053948626454915e-01  -1.0699220539695162e+00  -1.2797339035825541e+00  -1.5072645237355724e+00  -1.4766655302342342e+00  -1.4424591447723305e+00  -1.4280797495516124e+00  -1.4424207320076579e+00  -1.4775635445727962e+00  -1.5075303488480658e+00  -1.2806001756959826e+00  -1.0690552617739342e+00  -8.9061724076428350e-01  -7.3792313889345051e-01  -5.8780395285118237e-01  -4.1364359120801725e-01  -2.1527879895941940e-01  0.0000000000000000e+00  0.0000000000000000e+00  0.0000000000000000e+00  0.0000000000000000e+00  0.0000000000000000e+00  0.0000000000000000e+00  0.0000000000000000e+00  -6.4416622949502056e-01  -6.6647008536051289e-01  -6.9885801317648166e-01  -7.7255016217310579e-01  -8.0408796951161632e-01  -8.2540566300333562e-01  -8.2544207619585286e-01  -8.0417078176401069e-01  -7.7229194752021801e-01  -6.9858230953507006e-01  -6.6649348532319075e-01  -6.4418970091079419e-01  -7.3518179909522829e-01  -7.2561364557617125e-01  -7.4501343791188201e-01  -6.8595860225119432e-01  -7.8411595525447786e-01  -7.0269519457478480e-01  -7.8564799618244663e-01  -7.6786289284379250e-01  -6.8456048069068554e-01  -7.4562499054337317e-01  -7.2526025158669882e-01  -6.6311153480325535e-01  -8.0661616673405467e-01  -6.7165949332478492e-01  -7.7152624421110427e-01  -7.9844559295989825e-01  -6.9917062389850970e-01  -7.0991716572687413e-01  -7.6037954477425673e-01  -7.4658472353420724e-01  -7.2384576234557463e-01  -7.2094358645037648e-01  -7.4997494466293213e-01  -6.6008840417241677e-01  -8.0960535203058903e-01  -1.1375089734977459e+00  -1.1101857490779683e+00  -3.4173823319271923e-01  -3.6918842726203160e-01  -9.4939927907084476e-01  -1.1789444972386112e+00  -5.2848511043965507e-01  -2.8879291897706816e-01  -5.6257173717825615e-01  -1.1633539381536460e+00  -9.1461086860176866e-01  -3.0185413393610899e-01  -7.2294712642367709e-01  -7.5249722487041770e-01  -2.9447052528837464e-01  -1.1606998986949648e+00  -8.0381835772147858e-01  -6.7066043016317878e-01  -4.0856934741613110e-01  -1.0537336509646578e+00  -5.1084392082594321e-01  -9.6421252917362155e-01  -4.5806762062538037e-01  -1.0144678431286736e+00  -1.2968429832191692e+00  -1.3023285421388597e+00  -1.9548967216406610e-01  -1.9012817414248218e-01  -4.7670960354854724e-01  -9.1049809760966038e-01  -9.9396655312682192e-01  -5.6369003006692264e-01  -3.8943856928521353e-01  -1.0934709351023262e+00  -2.0315053415115492e-01  -1.2744872107584395e+00  -1.1404181248735963e+00  -1.3218639317789831e+00  -3.4484275040110890e-01  -1.6188478136876058e-01  -6.5174851578712756e-01  -1.2744042014582566e+00  -8.2509205634201066e-01  -1.7581667479810673e-01  -4.2031743886212175e-01  -8.2692062989929238e-01  -1.0436898571087039e+00  -6.4755420901892313e-01  -6.0505807469811734e-01  -9.9881999343228189e-01  -8.6921473946576189e-01  -4.6941503190242950e-01  -8.6882131492148473e-01  -1.2704874509285631e+00  -6.0837577781583563e-01  -1.8338448481242553e-01  -5.0954236774739481e-01  -1.3370822656689991e+00  -9.7050054008455788e-01  -1.2621321801708771e-01  </DataArray> 
</PointData> 
</Piece>
</UnstructuredGrid>
</VTKFile>